  COHP#  atomMU  atomNU     distance     translation      ICOHP (at) eF   for spin  1
      1     Li1     Li1      7.59344       2  -1  -2           -0.00052 
      2     Li1     Li1      6.45479       1   0  -2           -0.00088 
      3     Li1     Li1      5.65616       2   0  -2           -0.00690 
      4     Li1     Li1      6.45479       0   1  -2           -0.00088 
      5     Li1     Li1      4.89837       1   1  -2           -0.02104 
      6     Li1     Li1      7.59344       2   1  -2           -0.00052 
      7     Li1     Li1      7.59344      -1   2  -2           -0.00052 
      8     Li1     Li1      5.65616       0   2  -2           -0.00690 
      9     Li1     Li1      7.59344       1   2  -2           -0.00052 
     10     Li1     Li1      7.59344       2  -2  -1           -0.00052 
     11     Li1     Li1      5.80227       1  -1  -1           -0.00702 
     12     Li1     Li1      4.89837       2  -1  -1           -0.02104 
     13     Li1     Li1      5.06639       0   0  -1           -0.01115 
     14     Li1     Li1      2.82808       1   0  -1           -0.04785 
     15     Li1     Li1      6.45479       2   0  -1           -0.00088 
     16     Li1     Li1      5.80227      -1   1  -1           -0.00702 
     17     Li1     Li1      2.82808       0   1  -1           -0.04785 
     18     Li1     Li1      5.80227       1   1  -1           -0.00702 
     19     Li1     Li1      7.59344      -2   2  -1           -0.00052 
     20     Li1     Li1      4.89837      -1   2  -1           -0.02104 
     21     Li1     Li1      6.45479       0   2  -1           -0.00088 
     22     Li1     Li1      6.45479       1  -2   0           -0.00088 
     23     Li1     Li1      5.65616       2  -2   0           -0.00690 
     24     Li1     Li1      5.06639       0  -1   0           -0.01115 
     25     Li1     Li1      2.82808       1  -1   0           -0.04785 
     26     Li1     Li1      6.45479       2  -1   0           -0.00088 
     27     Li1     Li1      5.06639      -1   0   0           -0.01115 
     28     Li1     Li1      5.06639       1   0   0           -0.01115 
     29     Li1     Li1      6.45479      -2   1   0           -0.00088 
     30     Li1     Li1      2.82808      -1   1   0           -0.04785 
     31     Li1     Li1      5.06639       0   1   0           -0.01115 
     32     Li1     Li1      5.65616      -2   2   0           -0.00690 
     33     Li1     Li1      6.45479      -1   2   0           -0.00088 
     34     Li1     Li1      6.45479       0  -2   1           -0.00088 
     35     Li1     Li1      4.89837       1  -2   1           -0.02104 
     36     Li1     Li1      7.59344       2  -2   1           -0.00052 
     37     Li1     Li1      5.80227      -1  -1   1           -0.00702 
     38     Li1     Li1      2.82808       0  -1   1           -0.04785 
     39     Li1     Li1      5.80227       1  -1   1           -0.00702 
     40     Li1     Li1      6.45479      -2   0   1           -0.00088 
     41     Li1     Li1      2.82808      -1   0   1           -0.04785 
     42     Li1     Li1      5.06639       0   0   1           -0.01115 
     43     Li1     Li1      4.89837      -2   1   1           -0.02104 
     44     Li1     Li1      5.80227      -1   1   1           -0.00702 
     45     Li1     Li1      7.59344      -2   2   1           -0.00052 
     46     Li1     Li1      7.59344      -1  -2   2           -0.00052 
     47     Li1     Li1      5.65616       0  -2   2           -0.00690 
     48     Li1     Li1      7.59344       1  -2   2           -0.00052 
     49     Li1     Li1      7.59344      -2  -1   2           -0.00052 
     50     Li1     Li1      4.89837      -1  -1   2           -0.02104 
     51     Li1     Li1      6.45479       0  -1   2           -0.00088 
     52     Li1     Li1      5.65616      -2   0   2           -0.00690 
     53     Li1     Li1      6.45479      -1   0   2           -0.00088 
     54     Li1     Li1      7.59344      -2   1   2           -0.00052 
     55     Li1     Al2      6.35678       2   1  -2           -0.00074 
     56     Li1     Al2      6.35678       1   2  -2           -0.00074 
     57     Li1     Al2      6.95749       2   2  -2           -0.00073 
     58     Li1     Al2      7.73002       1   0  -1            0.00000 
     59     Li1     Al2      4.94091       2   0  -1           -0.00292 
     60     Li1     Al2      7.73002       0   1  -1           -0.00001 
     61     Li1     Al2      4.05149       1   1  -1           -0.01888 
     62     Li1     Al2      4.94091       2   1  -1           -0.00289 
     63     Li1     Al2      4.94091       0   2  -1           -0.00291 
     64     Li1     Al2      4.94091       1   2  -1           -0.00289 
     65     Li1     Al2      7.73001       1  -1   0           -0.00003 
     66     Li1     Al2      4.94091       2  -1   0           -0.00295 
     67     Li1     Al2      7.19410       0   0   0           -0.00115 
     68     Li1     Al2      2.90113       1   0   0           -0.14622 
     69     Li1     Al2      4.05149       2   0   0           -0.01879 
     70     Li1     Al2      7.73001      -1   1   0           -0.00002 
     71     Li1     Al2      2.90113       0   1   0           -0.14625 
     72     Li1     Al2      2.90113       1   1   0           -0.14465 
     73     Li1     Al2      7.73001       2   1   0           -0.00006 
     74     Li1     Al2      4.94091      -1   2   0           -0.00298 
     75     Li1     Al2      4.05149       0   2   0           -0.01888 
     76     Li1     Al2      7.73001       1   2   0           -0.00006 
     77     Li1     Al2      6.35678       2  -2   1           -0.00069 
     78     Li1     Al2      7.73001       0  -1   1           -0.00001 
     79     Li1     Al2      4.05149       1  -1   1           -0.01840 
     80     Li1     Al2      4.94091       2  -1   1           -0.00272 
     81     Li1     Al2      7.73001      -1   0   1           -0.00001 
     82     Li1     Al2      2.90113       0   0   1           -0.14650 
     83     Li1     Al2      2.90113       1   0   1           -0.14441 
     84     Li1     Al2      7.73001       2   0   1           -0.00006 
     85     Li1     Al2      4.05149      -1   1   1           -0.01838 
     86     Li1     Al2      2.90113       0   1   1           -0.14435 
     87     Li1     Al2      7.19410       1   1   1           -0.00281 
     88     Li1     Al2      6.35678      -2   2   1           -0.00069 
     89     Li1     Al2      4.94091      -1   2   1           -0.00267 
     90     Li1     Al2      7.73001       0   2   1           -0.00007 
     91     Li1     Al2      6.35678       1  -2   2           -0.00058 
     92     Li1     Al2      6.95749       2  -2   2           -0.00066 
     93     Li1     Al2      4.94091       0  -1   2           -0.00318 
     94     Li1     Al2      4.94091       1  -1   2           -0.00265 
     95     Li1     Al2      4.94091      -1   0   2           -0.00318 
     96     Li1     Al2      4.05149       0   0   2           -0.01960 
     97     Li1     Al2      7.73002       1   0   2           -0.00005 
     98     Li1     Al2      6.35678      -2   1   2           -0.00057 
     99     Li1     Al2      4.94091      -1   1   2           -0.00266 
    100     Li1     Al2      7.73002       0   1   2           -0.00005 
    101     Li1     Al2      6.95749      -2   2   2           -0.00066 
    102     Li1      O3      6.61288       2   0  -2           -0.00044 
    103     Li1      O3      5.97764       1   1  -2           -0.00294 
    104     Li1      O3      6.04441       2   1  -2           -0.00099 
    105     Li1      O3      6.61288       0   2  -2           -0.00044 
    106     Li1      O3      6.04441       1   2  -2           -0.00100 
    107     Li1      O3      5.97764       2  -1  -1           -0.00072 
    108     Li1      O3      4.44254       1   0  -1           -0.01591 
    109     Li1      O3      4.53199       2   0  -1           -0.00770 
    110     Li1      O3      4.44254       0   1  -1           -0.01592 
    111     Li1      O3      3.54131       1   1  -1           -0.00546 
    112     Li1      O3      7.52876       2   1  -1           -0.00024 
    113     Li1      O3      5.97764      -1   2  -1           -0.00072 
    114     Li1      O3      4.53199       0   2  -1           -0.00770 
    115     Li1      O3      7.52876       1   2  -1           -0.00024 
    116     Li1      O3      6.61288       2  -2   0           -0.00045 
    117     Li1      O3      4.44254       1  -1   0           -0.01577 
    118     Li1      O3      4.53199       2  -1   0           -0.00769 
    119     Li1      O3      3.42609       0   0   0           -0.00948 
    120     Li1      O3      2.13140       1   0   0           -0.45145 
    121     Li1      O3      6.97740       2   0   0           -0.00197 
    122     Li1      O3      4.44254      -1   1   0           -0.01577 
    123     Li1      O3      2.13140       0   1   0           -0.45150 
    124     Li1      O3      6.37857       1   1   0           -0.00046 
    125     Li1      O3      6.61288      -2   2   0           -0.00045 
    126     Li1      O3      4.53199      -1   2   0           -0.00769 
    127     Li1      O3      6.97740       0   2   0           -0.00197 
    128     Li1      O3      5.97764       1  -2   1           -0.00285 
    129     Li1      O3      6.04441       2  -2   1           -0.00096 
    130     Li1      O3      4.44253       0  -1   1           -0.01599 
    131     Li1      O3      3.54131       1  -1   1           -0.00547 
    132     Li1      O3      7.52876       2  -1   1           -0.00023 
    133     Li1      O3      4.44253      -1   0   1           -0.01598 
    134     Li1      O3      2.13140       0   0   1           -0.45212 
    135     Li1      O3      6.37857       1   0   1           -0.00045 
    136     Li1      O3      5.97764      -2   1   1           -0.00284 
    137     Li1      O3      3.54131      -1   1   1           -0.00546 
    138     Li1      O3      6.37857       0   1   1           -0.00046 
    139     Li1      O3      6.04441      -2   2   1           -0.00096 
    140     Li1      O3      7.52876      -1   2   1           -0.00023 
    141     Li1      O3      6.61288       0  -2   2           -0.00044 
    142     Li1      O3      6.04441       1  -2   2           -0.00099 
    143     Li1      O3      5.97764      -1  -1   2           -0.00074 
    144     Li1      O3      4.53199       0  -1   2           -0.00769 
    145     Li1      O3      7.52876       1  -1   2           -0.00023 
    146     Li1      O3      6.61288      -2   0   2           -0.00044 
    147     Li1      O3      4.53199      -1   0   2           -0.00769 
    148     Li1      O3      6.97740       0   0   2           -0.00197 
    149     Li1      O3      6.04441      -2   1   2           -0.00099 
    150     Li1      O3      7.52876      -1   1   2           -0.00023 
    151     Li1      O4      6.67330       2   2  -2           -0.00145 
    152     Li1      O4      7.52876       2   0  -1           -0.00035 
    153     Li1      O4      6.97740       1   1  -1           -0.00133 
    154     Li1      O4      4.53199       2   1  -1           -0.00754 
    155     Li1      O4      7.52876       0   2  -1           -0.00035 
    156     Li1      O4      4.53199       1   2  -1           -0.00754 
    157     Li1      O4      5.97764       2   2  -1           -0.00079 
    158     Li1      O4      7.52876       2  -1   0           -0.00035 
    159     Li1      O4      6.37857       1   0   0           -0.00052 
    160     Li1      O4      3.54131       2   0   0           -0.00419 
    161     Li1      O4      6.37857       0   1   0           -0.00052 
    162     Li1      O4      2.13140       1   1   0           -0.45749 
    163     Li1      O4      4.44253       2   1   0           -0.01554 
    164     Li1      O4      7.52876      -1   2   0           -0.00035 
    165     Li1      O4      3.54131       0   2   0           -0.00419 
    166     Li1      O4      4.44253       1   2   0           -0.01556 
    167     Li1      O4      6.97740       1  -1   1           -0.00133 
    168     Li1      O4      4.53199       2  -1   1           -0.00753 
    169     Li1      O4      6.37857       0   0   1           -0.00053 
    170     Li1      O4      2.13140       1   0   1           -0.45685 
    171     Li1      O4      4.44254       2   0   1           -0.01534 
    172     Li1      O4      6.97740      -1   1   1           -0.00133 
    173     Li1      O4      2.13140       0   1   1           -0.45682 
    174     Li1      O4      3.42609       1   1   1           -0.01126 
    175     Li1      O4      4.53199      -1   2   1           -0.00753 
    176     Li1      O4      4.44254       0   2   1           -0.01532 
    177     Li1      O4      6.67330       2  -2   2           -0.00146 
    178     Li1      O4      7.52876       0  -1   2           -0.00036 
    179     Li1      O4      4.53199       1  -1   2           -0.00755 
    180     Li1      O4      5.97764       2  -1   2           -0.00078 
    181     Li1      O4      7.52876      -1   0   2           -0.00036 
    182     Li1      O4      3.54131       0   0   2           -0.00418 
    183     Li1      O4      4.44254       1   0   2           -0.01549 
    184     Li1      O4      4.53199      -1   1   2           -0.00755 
    185     Li1      O4      4.44254       0   1   2           -0.01548 
    186     Li1      O4      6.67330      -2   2   2           -0.00146 
    187     Li1      O4      5.97764      -1   2   2           -0.00078 
    188     Al2     Al2      7.59344       2  -1  -2            0.00000 
    189     Al2     Al2      6.45479       1   0  -2           -0.00041 
    190     Al2     Al2      5.65616       2   0  -2           -0.01611 
    191     Al2     Al2      6.45479       0   1  -2           -0.00041 
    192     Al2     Al2      4.89837       1   1  -2           -0.01106 
    193     Al2     Al2      7.59344       2   1  -2            0.00007 
    194     Al2     Al2      7.59344      -1   2  -2           -0.00000 
    195     Al2     Al2      5.65616       0   2  -2           -0.01644 
    196     Al2     Al2      7.59344       1   2  -2            0.00006 
    197     Al2     Al2      7.59344       2  -2  -1           -0.00000 
    198     Al2     Al2      5.80227       1  -1  -1           -0.00152 
    199     Al2     Al2      4.89837       2  -1  -1           -0.01372 
    200     Al2     Al2      5.06639       0   0  -1           -0.00356 
    201     Al2     Al2      2.82808       1   0  -1           -0.60194 
    202     Al2     Al2      6.45479       2   0  -1           -0.00034 
    203     Al2     Al2      5.80227      -1   1  -1           -0.00150 
    204     Al2     Al2      2.82808       0   1  -1           -0.60372 
    205     Al2     Al2      5.80227       1   1  -1           -0.00159 
    206     Al2     Al2      7.59344      -2   2  -1            0.00000 
    207     Al2     Al2      4.89837      -1   2  -1           -0.01363 
    208     Al2     Al2      6.45479       0   2  -1           -0.00035 
    209     Al2     Al2      6.45479       1  -2   0           -0.00035 
    210     Al2     Al2      5.65616       2  -2   0           -0.00676 
    211     Al2     Al2      5.06639       0  -1   0           -0.00322 
    212     Al2     Al2      2.82808       1  -1   0           -0.56179 
    213     Al2     Al2      6.45479       2  -1   0           -0.00034 
    214     Al2     Al2      5.06639      -1   0   0           -0.00320 
    215     Al2     Al2      5.06639       1   0   0           -0.00320 
    216     Al2     Al2      6.45479      -2   1   0           -0.00034 
    217     Al2     Al2      2.82808      -1   1   0           -0.56179 
    218     Al2     Al2      5.06639       0   1   0           -0.00322 
    219     Al2     Al2      5.65616      -2   2   0           -0.00676 
    220     Al2     Al2      6.45479      -1   2   0           -0.00035 
    221     Al2     Al2      6.45479       0  -2   1           -0.00035 
    222     Al2     Al2      4.89837       1  -2   1           -0.01363 
    223     Al2     Al2      7.59344       2  -2   1            0.00000 
    224     Al2     Al2      5.80227      -1  -1   1           -0.00159 
    225     Al2     Al2      2.82808       0  -1   1           -0.60372 
    226     Al2     Al2      5.80227       1  -1   1           -0.00150 
    227     Al2     Al2      6.45479      -2   0   1           -0.00034 
    228     Al2     Al2      2.82808      -1   0   1           -0.60194 
    229     Al2     Al2      5.06639       0   0   1           -0.00356 
    230     Al2     Al2      4.89837      -2   1   1           -0.01372 
    231     Al2     Al2      5.80227      -1   1   1           -0.00152 
    232     Al2     Al2      7.59344      -2   2   1           -0.00000 
    233     Al2     Al2      7.59344      -1  -2   2            0.00006 
    234     Al2     Al2      5.65616       0  -2   2           -0.01644 
    235     Al2     Al2      7.59344       1  -2   2           -0.00000 
    236     Al2     Al2      7.59344      -2  -1   2            0.00007 
    237     Al2     Al2      4.89837      -1  -1   2           -0.01106 
    238     Al2     Al2      6.45479       0  -1   2           -0.00041 
    239     Al2     Al2      5.65616      -2   0   2           -0.01611 
    240     Al2     Al2      6.45479      -1   0   2           -0.00041 
    241     Al2     Al2      7.59344      -2   1   2            0.00000 
    242     Al2      O3      7.25138       1  -1  -2           -0.00028 
    243     Al2      O3      5.97620       2  -1  -2           -0.00036 
    244     Al2      O3      6.67716       0   0  -2           -0.00023 
    245     Al2      O3      4.44060       1   0  -2           -0.02918 
    246     Al2      O3      6.79632       2   0  -2           -0.00087 
    247     Al2      O3      7.25138      -1   1  -2           -0.00028 
    248     Al2      O3      4.44060       0   1  -2           -0.02943 
    249     Al2      O3      6.17997       1   1  -2           -0.00005 
    250     Al2      O3      5.97620      -1   2  -2           -0.00039 
    251     Al2      O3      6.79632       0   2  -2           -0.00083 
    252     Al2      O3      7.25138       1  -2  -1           -0.00058 
    253     Al2      O3      5.97620       2  -2  -1           -0.00098 
    254     Al2      O3      6.04867       0  -1  -1           -0.00066 
    255     Al2      O3      3.42358       1  -1  -1           -0.04197 
    256     Al2      O3      6.17997       2  -1  -1           -0.00066 
    257     Al2      O3      6.04867      -1   0  -1           -0.00067 
    258     Al2      O3      1.92948       0   0  -1           -4.36671 
    259     Al2      O3      4.71126       1   0  -1           -0.00549 
    260     Al2      O3      7.25138      -2   1  -1           -0.00059 
    261     Al2      O3      3.42358      -1   1  -1           -0.04192 
    262     Al2      O3      4.71126       0   1  -1           -0.00545 
    263     Al2      O3      5.97620      -2   2  -1           -0.00099 
    264     Al2      O3      6.17997      -1   2  -1           -0.00066 
    265     Al2      O3      6.67716       0  -2   0           -0.00023 
    266     Al2      O3      4.44060       1  -2   0           -0.02697 
    267     Al2      O3      6.79632       2  -2   0           -0.00064 
    268     Al2      O3      6.04867      -1  -1   0           -0.00061 
    269     Al2      O3      1.92948       0  -1   0           -4.33730 
    270     Al2      O3      4.71126       1  -1   0           -0.00567 
    271     Al2      O3      6.67716      -2   0   0           -0.00023 
    272     Al2      O3      1.92948      -1   0   0           -4.33584 
    273     Al2      O3      3.76801       0   0   0           -0.04438 
    274     Al2      O3      4.44060      -2   1   0           -0.02668 
    275     Al2      O3      4.71126      -1   1   0           -0.00569 
    276     Al2      O3      6.79632      -2   2   0           -0.00064 
    277     Al2      O3      7.25138      -1  -2   1           -0.00045 
    278     Al2      O3      4.44060       0  -2   1           -0.02801 
    279     Al2      O3      6.17997       1  -2   1           -0.00033 
    280     Al2      O3      7.25138      -2  -1   1           -0.00047 
    281     Al2      O3      3.42358      -1  -1   1           -0.04445 
    282     Al2      O3      4.71126       0  -1   1           -0.00586 
    283     Al2      O3      4.44060      -2   0   1           -0.02804 
    284     Al2      O3      4.71126      -1   0   1           -0.00599 
    285     Al2      O3      6.17997      -2   1   1           -0.00040 
    286     Al2      O3      5.97620      -1  -2   2           -0.00105 
    287     Al2      O3      6.79632       0  -2   2           -0.00079 
    288     Al2      O3      5.97620      -2  -1   2           -0.00116 
    289     Al2      O3      6.17997      -1  -1   2           -0.00089 
    290     Al2      O3      6.79632      -2   0   2           -0.00079 
    291     Al2      O4      6.79632       2   0  -2           -0.00067 
    292     Al2      O4      6.17997       1   1  -2           -0.00143 
    293     Al2      O4      5.97620       2   1  -2           -0.00114 
    294     Al2      O4      6.79632       0   2  -2           -0.00066 
    295     Al2      O4      5.97620       1   2  -2           -0.00109 
    296     Al2      O4      6.17997       2  -1  -1           -0.00084 
    297     Al2      O4      4.71126       1   0  -1           -0.00610 
    298     Al2      O4      4.44060       2   0  -1           -0.02842 
    299     Al2      O4      4.71126       0   1  -1           -0.00606 
    300     Al2      O4      3.42358       1   1  -1           -0.04489 
    301     Al2      O4      7.25138       2   1  -1           -0.00071 
    302     Al2      O4      6.17997      -1   2  -1           -0.00081 
    303     Al2      O4      4.44060       0   2  -1           -0.02845 
    304     Al2      O4      7.25138       1   2  -1           -0.00066 
    305     Al2      O4      6.79632       2  -2   0           -0.00055 
    306     Al2      O4      4.71126       1  -1   0           -0.00593 
    307     Al2      O4      4.44060       2  -1   0           -0.02745 
    308     Al2      O4      3.76801       0   0   0           -0.04790 
    309     Al2      O4      1.92948       1   0   0           -4.33857 
    310     Al2      O4      6.67716       2   0   0           -0.00035 
    311     Al2      O4      4.71126      -1   1   0           -0.00593 
    312     Al2      O4      1.92948       0   1   0           -4.33891 
    313     Al2      O4      6.04867       1   1   0           -0.00057 
    314     Al2      O4      6.79632      -2   2   0           -0.00055 
    315     Al2      O4      4.44060      -1   2   0           -0.02749 
    316     Al2      O4      6.67716       0   2   0           -0.00034 
    317     Al2      O4      6.17997       1  -2   1           -0.00087 
    318     Al2      O4      5.97620       2  -2   1           -0.00133 
    319     Al2      O4      4.71126       0  -1   1           -0.00576 
    320     Al2      O4      3.42358       1  -1   1           -0.04251 
    321     Al2      O4      7.25138       2  -1   1           -0.00085 
    322     Al2      O4      4.71126      -1   0   1           -0.00571 
    323     Al2      O4      1.92948       0   0   1           -4.37145 
    324     Al2      O4      6.04867       1   0   1           -0.00057 
    325     Al2      O4      6.17997      -2   1   1           -0.00083 
    326     Al2      O4      3.42358      -1   1   1           -0.04250 
    327     Al2      O4      6.04867       0   1   1           -0.00056 
    328     Al2      O4      5.97620      -2   2   1           -0.00129 
    329     Al2      O4      7.25138      -1   2   1           -0.00089 
    330     Al2      O4      6.79632       0  -2   2           -0.00074 
    331     Al2      O4      5.97620       1  -2   2           -0.00052 
    332     Al2      O4      6.17997      -1  -1   2           -0.00031 
    333     Al2      O4      4.44060       0  -1   2           -0.03026 
    334     Al2      O4      7.25138       1  -1   2           -0.00050 
    335     Al2      O4      6.79632      -2   0   2           -0.00067 
    336     Al2      O4      4.44060      -1   0   2           -0.02998 
    337     Al2      O4      6.67716       0   0   2           -0.00032 
    338     Al2      O4      5.97620      -2   1   2           -0.00056 
    339     Al2      O4      7.25138      -1   1   2           -0.00047 
    340      O3      O3      7.59344       2  -1  -2           -0.00003 
    341      O3      O3      6.45479       1   0  -2           -0.00016 
    342      O3      O3      5.65616       2   0  -2           -0.00009 
    343      O3      O3      6.45479       0   1  -2           -0.00016 
    344      O3      O3      4.89837       1   1  -2            0.00003 
    345      O3      O3      7.59344       2   1  -2           -0.00003 
    346      O3      O3      7.59344      -1   2  -2           -0.00002 
    347      O3      O3      5.65616       0   2  -2           -0.00007 
    348      O3      O3      7.59344       1   2  -2           -0.00003 
    349      O3      O3      7.59344       2  -2  -1           -0.00002 
    350      O3      O3      5.80227       1  -1  -1           -0.00112 
    351      O3      O3      4.89837       2  -1  -1            0.00010 
    352      O3      O3      5.06639       0   0  -1           -0.00008 
    353      O3      O3      2.82808       1   0  -1           -0.11134 
    354      O3      O3      6.45479       2   0  -1           -0.00019 
    355      O3      O3      5.80227      -1   1  -1           -0.00110 
    356      O3      O3      2.82808       0   1  -1           -0.11128 
    357      O3      O3      5.80227       1   1  -1           -0.00104 
    358      O3      O3      7.59344      -2   2  -1           -0.00002 
    359      O3      O3      4.89837      -1   2  -1            0.00010 
    360      O3      O3      6.45479       0   2  -1           -0.00018 
    361      O3      O3      6.45479       1  -2   0           -0.00022 
    362      O3      O3      5.65616       2  -2   0           -0.00031 
    363      O3      O3      5.06639       0  -1   0           -0.00009 
    364      O3      O3      2.82808       1  -1   0           -0.11301 
    365      O3      O3      6.45479       2  -1   0           -0.00022 
    366      O3      O3      5.06639      -1   0   0           -0.00009 
    367      O3      O3      5.06639       1   0   0           -0.00009 
    368      O3      O3      6.45479      -2   1   0           -0.00022 
    369      O3      O3      2.82808      -1   1   0           -0.11301 
    370      O3      O3      5.06639       0   1   0           -0.00009 
    371      O3      O3      5.65616      -2   2   0           -0.00031 
    372      O3      O3      6.45479      -1   2   0           -0.00022 
    373      O3      O3      6.45479       0  -2   1           -0.00018 
    374      O3      O3      4.89837       1  -2   1            0.00010 
    375      O3      O3      7.59344       2  -2   1           -0.00002 
    376      O3      O3      5.80227      -1  -1   1           -0.00104 
    377      O3      O3      2.82808       0  -1   1           -0.11128 
    378      O3      O3      5.80227       1  -1   1           -0.00110 
    379      O3      O3      6.45479      -2   0   1           -0.00019 
    380      O3      O3      2.82808      -1   0   1           -0.11134 
    381      O3      O3      5.06639       0   0   1           -0.00008 
    382      O3      O3      4.89837      -2   1   1            0.00010 
    383      O3      O3      5.80227      -1   1   1           -0.00112 
    384      O3      O3      7.59344      -2   2   1           -0.00002 
    385      O3      O3      7.59344      -1  -2   2           -0.00003 
    386      O3      O3      5.65616       0  -2   2           -0.00007 
    387      O3      O3      7.59344       1  -2   2           -0.00002 
    388      O3      O3      7.59344      -2  -1   2           -0.00003 
    389      O3      O3      4.89837      -1  -1   2            0.00003 
    390      O3      O3      6.45479       0  -1   2           -0.00016 
    391      O3      O3      5.65616      -2   0   2           -0.00009 
    392      O3      O3      6.45479      -1   0   2           -0.00016 
    393      O3      O3      7.59344      -2   1   2           -0.00003 
    394      O3      O4      6.49349       2   1  -2           -0.00004 
    395      O3      O4      6.49349       1   2  -2           -0.00004 
    396      O3      O4      6.84717       2   2  -2           -0.00002 
    397      O3      O4      5.11561       2   0  -1           -0.00013 
    398      O3      O4      4.26279       1   1  -1           -0.00218 
    399      O3      O4      4.78431       2   1  -1            0.00016 
    400      O3      O4      5.11561       0   2  -1           -0.00013 
    401      O3      O4      4.78431       1   2  -1            0.00014 
    402      O3      O4      5.11561       2  -1   0           -0.00012 
    403      O3      O4      7.53602       0   0   0           -0.00003 
    404      O3      O4      3.18957       1   0   0           -0.03763 
    405      O3      O4      3.85897       2   0   0           -0.05855 
    406      O3      O4      3.18957       0   1   0           -0.03765 
    407      O3      O4      2.62557       1   1   0           -0.20926 
    408      O3      O4      7.41285       2   1   0           -0.00004 
    409      O3      O4      5.11561      -1   2   0           -0.00012 