unknown system                          
           1
     0.000000    2.875091    2.875091
     2.875091    0.000000    2.875091
     2.875091    2.875091    0.000000
   Ga   As
   1   1
Direct configuration=     1
   0.00000000  0.00000000  0.00000000
   0.75000000  0.75000000  0.75000000
